 # HEADER
 
       51726  atoms
           5  atom types
 
      0.00000000     201.84600000  xlo xhi
      0.00000000     194.32800000  ylo yhi
      0.00000000     137.80000000  zlo zhi
 
Masses
 
           1   14.00700000    # N 
           2   12.01100000    # C 
           3   15.99900000    # O 
           4   32.06000000    # S 
           5   1.00800000    # H 
 
Atoms # charge
 
         1    1   0.000000      -26.32900000      66.96200000     -30.17700000
         2    2   0.000000      -26.93100000      65.90600000     -29.38300000
         3    2   0.000000      -28.23300000      66.33000000     -28.72500000
         4    3   0.000000      -28.83100000      67.33800000     -29.10100000
         5    1   0.000000      -28.67100000      65.55600000     -27.73700000
         6    2   0.000000      -29.93100000      65.82500000     -27.05200000
         7    2   0.000000      -29.83700000      67.01600000     -26.11000000
         8    3   0.000000      -28.76300000      67.35200000     -25.61400000
         9    2   0.000000      -30.39700000      64.59300000     -26.28000000
        10    3   0.000000      -30.84500000      63.58600000     -27.16900000
        11    1   0.000000      -30.97800000      67.64700000     -25.86700000
        12    2   0.000000      -31.05600000      68.75700000     -24.93500000
        13    2   0.000000      -32.31300000      68.64300000     -24.08000000
        14    3   0.000000      -33.23700000      67.90400000     -24.41600000
        15    2   0.000000      -31.02500000      21.23700000     -25.68500000
        16    2   0.000000      -29.76200000      21.45100000     -26.45800000
        17    1   0.000000      -28.58500000      21.83500000     -25.86000000
        18    2   0.000000      -29.49300000      21.31200000     -27.77800000
        19    2   0.000000      -27.63900000      21.93100000     -26.78100000
        20    1   0.000000      -28.16300000      21.61800000     -27.95000000
        21    1   0.000000      -32.33600000      20.52700000     -22.97300000
        22    2   0.000000      -33.46600000      20.49100000     -22.05900000
        23    2   0.000000      -33.71100000      21.86500000     -21.47000000
        24    3   0.000000      -32.78900000      22.66500000     -21.33900000
        25    2   0.000000      -33.20500000      68.33900000     -20.92800000
        26    3   0.000000      -32.07700000      68.72300000     -20.15600000
        27    1   0.000000      -34.96600000      22.14100000     -21.13800000
        28    2   0.000000      -35.29200000      23.27100000     -20.28300000
        29    2   0.000000      -35.98600000      22.70400000     -19.05700000
        30    3   0.000000      -36.90100000      21.88900000     -19.18200000
        31    2   0.000000      -36.19400000      24.29600000     -20.98200000
        32    2   0.000000      -36.48300000      25.51200000     -20.10400000
        33    4   0.000000      -37.46600000      26.83600000     -20.82900000
        34    2   0.000000      -39.05600000      26.03300000     -21.02900000
        35    1   0.000000      -35.54100000      23.12200000     -17.87600000
        36    2   0.000000      -36.09300000      22.61100000     -16.62500000
        37    2   0.000000      -36.33300000      23.72900000     -15.63200000
        38    3   0.000000      -35.49800000      24.62100000     -15.47100000
        39    2   0.000000      -35.13700000      21.60600000     -15.98600000
        40    2   0.000000      -34.86300000      69.22200000     -16.81600000
        41    2   0.000000      -35.87400000      68.13400000     -16.53700000
        42    1   0.000000      -35.39100000      66.84800000     -17.02900000
        43    2   0.000000      -35.55200000      66.42100000     -18.27700000
        44    1   0.000000      -36.19400000      67.18000000     -19.16200000
        45    1   0.000000      -35.07400000      65.23700000     -18.64100000
        46    1   0.000000      -37.47700000      23.67000000     -14.96300000
        47    2   0.000000      -37.75900000      24.56700000     -13.85900000
        48    2   0.000000      -37.85700000      23.75500000     -12.56800000
        49    3   0.000000      -38.47800000      22.69800000     -12.53700000
        50    2   0.000000      -39.06100000      25.33200000     -14.10800000
        51    2   0.000000      -38.93200000      26.48300000     -15.07300000
        52    2   0.000000      -38.27500000      27.65000000     -14.70600000
        53    2   0.000000      -39.47600000      26.40900000     -16.35600000
        54    2   0.000000      -38.15800000      28.71400000     -15.58300000
        55    2   0.000000      -39.36000000      27.47200000     -17.24400000
        56    2   0.000000      -38.70300000      28.62300000     -16.85100000
        57    3   0.000000      -38.58000000      29.68800000     -17.72700000
        58    1   0.000000      -37.23300000      24.25000000     -11.50800000
        59    2   0.000000      -37.25500000      23.56900000     -10.22200000
        60    2   0.000000      -37.84700000      24.51000000      -9.17800000
        61    3   0.000000      -37.43500000      25.66100000      -9.07500000
        62    2   0.000000      -35.83900000      23.14100000      -9.81700000
        63    2   0.000000      -35.14500000      22.27300000     -10.83800000
        64    2   0.000000      -35.16300000      20.89300000     -10.72400000
        65    2   0.000000      -34.47100000      22.84100000     -11.90700000
        66    2   0.000000      -34.52500000      68.93600000     -11.67000000
        67    2   0.000000      -33.82700000      22.04500000     -12.85000000
        68    2   0.000000      -33.85800000      20.66600000     -12.72600000
        69    1   0.000000      -38.82200000      24.02300000      -8.41800000
        70    2   0.000000      -39.48800000      24.83900000      -7.40700000
        71    2   0.000000      -39.40900000      24.18200000      -6.03300000
        72    3   0.000000      -39.67700000      22.98600000      -5.88600000
        73    2   0.000000      -40.95600000      25.07200000      -7.78100000
        74    2   0.000000      -41.15800000      25.55500000      -9.19200000
        75    2   0.000000      -41.28300000      26.90800000      -9.46600000
        76    2   0.000000      -41.22600000      24.65400000     -10.24300000
        77    2   0.000000      -41.47100000      27.35300000     -10.76300000
        78    2   0.000000      -41.41200000      25.09000000     -11.54100000
        79    2   0.000000      -41.53600000      26.43800000     -11.80400000
        80    1   0.000000      -39.04600000      24.96400000      -5.02300000
        81    2   0.000000      -39.00500000      24.44700000      -3.66200000
        82    2   0.000000      -39.79400000      25.33600000      -2.71800000
        83    3   0.000000      -39.55700000      26.54300000      -2.65000000
        84    2   0.000000      -37.56700000      24.33800000      -3.12900000
        85    3   0.000000      -36.79100000      23.49300000      -3.99000000
        86    2   0.000000      -37.57700000      23.75500000      -1.71300000
        87    1   0.000000      -40.73100000      24.73800000      -1.99200000
        88    2   0.000000      -41.51300000      25.47100000      -1.00300000
        89    2   0.000000      -41.39700000      24.79400000       0.36300000
        90    3   0.000000      -41.63900000      23.58900000       0.49100000
        91    2   0.000000      -42.97600000      25.55600000      -1.44000000
        92    3   0.000000      -43.63300000      26.64100000      -0.80400000
        93    1   0.000000      -41.01400000      25.56600000       1.37600000
        94    2   0.000000      -40.75000000      25.02100000       2.70500000
        95    2   0.000000      -41.54300000      25.75800000       3.77500000
        96    3   0.000000      -41.33400000      26.94800000       3.99600000
        97    2   0.000000      -39.25600000      25.14300000       3.06000000
        98    2   0.000000      -38.96600000      24.49800000       4.42200000
        99    2   0.000000      -38.40000000      24.52500000       1.96900000
       100    1   0.000000      -42.44600000      25.04800000       4.44300000
       101    2   0.000000      -43.22000000      25.63700000       5.53100000
       102    2   0.000000      -42.31600000      26.02900000       6.69400000
       103    3   0.000000      -41.31300000      25.36400000       6.96800000
       104    2   0.000000      -44.30500000      24.67100000       6.01400000
       105    3   0.000000      -43.73500000      23.49200000       6.57000000
       106    1   0.000000      -42.67900000      27.11300000       7.37000000
       107    2   0.000000      -41.92100000      27.59900000       8.51600000
       108    2   0.000000      -42.84400000      27.78700000       9.72100000
       109    3   0.000000      -43.34600000      28.88300000       9.96400000
       110    2   0.000000      -41.17600000      28.89300000       8.15400000
       111    2   0.000000      -40.13500000      28.66500000       7.05200000
       112    2   0.000000      -39.23200000      29.86200000       6.79900000
       113    1   0.000000      -39.88700000      30.86900000       5.97700000
       114    2   0.000000      -39.25000000      31.84200000       5.33300000
       115    1   0.000000      -37.93100000      31.94000000       5.40400000
       116    1   0.000000      -39.93800000      32.71700000       4.61100000
       117    1   0.000000      -43.08100000      26.69600000      10.46500000
       118    2   0.000000      -43.97700000      26.63900000      11.62800000
       119    2   0.000000      -43.70600000      27.76600000      12.61500000
       120    3   0.000000      -42.57900000      27.91400000      13.08300000
       121    2   0.000000      -43.62800000      25.29300000      12.27200000
       122    2   0.000000      -43.13800000      24.46000000      11.14500000
       123    2   0.000000      -42.43100000      25.40000000      10.20500000
       124    1   0.000000      -44.73400000      28.55000000      12.91600000
       125    2   0.000000      -44.61000000      29.65900000      13.84500000
       126    2   0.000000      -43.66800000      30.74900000      13.37500000
       127    3   0.000000      -43.29300000      31.62500000      14.15200000
       128    1   0.000000      -43.29000000      30.70400000      12.09900000
       129    2   0.000000      -42.34900000      31.67700000      11.54600000
       130    2   0.000000      -42.83000000      32.30700000      10.23300000
       131    3   0.000000      -42.02100000      32.75100000       9.41600000
       132    2   0.000000      -40.96200000      31.04400000      11.36200000
       133    2   0.000000      -40.21700000      30.79100000      12.67200000
       134    2   0.000000      -38.96500000      29.93500000      12.47400000
       135    1   0.000000      -38.12200000      30.41700000      11.38000000
       136    2   0.000000      -37.77900000      29.69500000      10.31400000
       137    1   0.000000      -38.19400000      28.43900000      10.18800000
       138    1   0.000000      -37.00900000      30.22800000       9.37300000
       139    1   0.000000      -44.14500000      32.34500000      10.03600000
       140    2   0.000000      -44.72300000      33.04800000       8.90600000
       141    2   0.000000      -44.80500000      32.25800000       7.61000000
       142    3   0.000000      -44.95800000      31.03800000       7.61700000
       143    1   0.000000      -44.69500000      32.97000000       6.49200000
       144    2   0.000000      -44.92000000      32.39900000       5.16500000
       145    2   0.000000      -43.80000000      31.46500000       4.70900000
       146    3   0.000000      -42.64500000      31.62300000       5.10500000
       147    2   0.000000      -45.10700000      33.51900000       4.14100000
       148    2   0.000000      -46.25000000      34.46300000       4.47400000
       149    2   0.000000      -47.59800000      33.80700000       4.29700000
       150    3   0.000000      -47.77800000      33.11000000       3.27800000
       151    3   0.000000      -48.47700000      33.98900000       5.16500000
       152    1   0.000000      -44.14200000      30.49100000       3.85400000
       153    2   0.000000      -43.15100000      29.51700000       3.38400000
       154    2   0.000000      -42.02200000      30.18200000       2.61200000
       155    3   0.000000      -42.22700000      31.22800000       2.00100000
       156    2   0.000000      -43.95800000      28.62000000       2.43600000
       157    2   0.000000      -45.38700000      28.85100000       2.78200000
       158    2   0.000000      -45.47100000      30.26300000       3.26100000
       159    1   0.000000      -40.83700000      29.58400000       2.66000000
       160    2   0.000000      -39.75100000      29.97500000       1.77200000
       161    2   0.000000      -40.07700000      29.41200000       0.39700000
       162    3   0.000000      -40.45200000      28.24500000       0.27600000
       163    2   0.000000      -38.42000000      29.40100000       2.27000000
       164    2   0.000000      -37.21400000      29.68100000       1.37100000
       165    2   0.000000      -36.74800000      31.11800000       1.51200000
       166    1   0.000000      -35.49700000      31.38700000       0.80500000
       167    2   0.000000      -34.28500000      31.16900000       1.30900000
       168    1   0.000000      -34.15000000      30.66200000       2.52600000
       169    1   0.000000      -33.20400000      31.45200000       0.59200000
       170    1   0.000000      -39.95800000      30.23800000      -0.63600000
       171    2   0.000000      -40.16300000      29.76400000      -2.00100000
       172    2   0.000000      -38.99400000      30.15100000      -2.89000000
       173    3   0.000000      -38.70200000      31.33200000      -3.07100000
       174    2   0.000000      -41.46700000      30.30600000      -2.59200000
       175    2   0.000000      -41.72900000      29.84600000      -4.00300000
       176    2   0.000000      -42.20900000      28.57200000      -4.25300000
       177    2   0.000000      -41.49300000      30.68600000      -5.07600000
       178    2   0.000000      -42.45000000      28.14200000      -5.54900000
       179    2   0.000000      -41.73200000      30.26200000      -6.37800000
       180    2   0.000000      -42.21200000      28.98900000      -6.61300000
       181    1   0.000000      -38.32800000      29.14100000      -3.43600000
       182    2   0.000000      -37.22200000      29.35300000      -4.35800000
       183    2   0.000000      -37.51000000      28.65200000      -5.68600000
       184    3   0.000000      -37.87400000      27.47200000      -5.71500000
       185    2   0.000000      -35.89100000      28.85000000      -3.75900000
       186    2   0.000000      -35.56800000      29.63400000      -2.47800000
       187    2   0.000000      -34.76400000      29.00100000      -4.76700000
       188    2   0.000000      -34.41700000      29.07600000      -1.66100000
       189    1   0.000000      -37.36700000      29.39100000      -6.78200000
       190    2   0.000000      -37.57000000      28.83300000      -8.11400000
       191    2   0.000000      -36.38300000      29.16400000      -9.00000000
       192    3   0.000000      -35.89000000      30.29100000      -8.99200000
       193    2   0.000000      -38.84800000      29.37100000      -8.73200000
       194    1   0.000000      -35.92000000      28.17400000      -9.75700000
       195    2   0.000000      -34.81400000      28.38000000     -10.68000000
       196    2   0.000000      -35.11800000      27.72900000     -12.02800000
       197    3   0.000000      -35.79400000      26.70300000     -12.09400000
       198    2   0.000000      -33.48400000      27.82300000     -10.12400000
       199    2   0.000000      -33.10900000      28.52400000      -8.81700000
       200    2   0.000000      -33.57100000      26.31800000      -9.92300000
       201    1   0.000000      -34.62400000      28.33900000     -13.09900000
       202    2   0.000000      -34.75800000      27.77100000     -14.43100000
       203    2   0.000000      -33.41200000      27.41800000     -15.03300000
       204    3   0.000000      -32.44700000      28.16800000     -14.90500000
       205    1   0.000000      -33.34500000      26.26400000     -15.68500000
       206    2   0.000000      -32.12000000      25.82100000     -16.33600000
       207    2   0.000000      -32.37500000      25.52900000     -17.80900000
       208    3   0.000000      -33.44200000      25.03300000     -18.17400000
       209    2   0.000000      -31.58800000      24.54100000     -15.68200000
       210    2   0.000000      -30.83400000      24.75200000     -14.38800000
       211    2   0.000000      -31.49400000      24.73700000     -13.16500000
       212    2   0.000000      -29.46100000      24.94800000     -14.38900000
       213    2   0.000000      -30.80500000      24.91600000     -11.97700000
       214    2   0.000000      -28.76300000      25.13500000     -13.20900000
       215    2   0.000000      -29.43900000      25.11900000     -12.00600000
       216    3   0.000000      -28.74800000      25.30500000     -10.83100000
       217    1   0.000000      -31.39700000      25.86200000     -18.64600000
       218    2   0.000000      -31.29100000      25.28300000     -19.97700000
       219    2   0.000000      -30.06500000      24.38800000     -19.91100000
       220    3   0.000000      -28.97300000      24.85900000     -19.60000000
       221    2   0.000000      -31.09600000      26.35300000     -21.06600000
       222    2   0.000000      -30.69100000      25.70300000     -22.37800000
       223    2   0.000000      -32.36400000      27.17200000     -21.24700000
       224    1   0.000000      -30.24500000      23.10100000     -20.18300000
       225    2   0.000000      -29.18700000      22.12800000     -19.95400000
       226    2   0.000000      -28.68000000      22.30300000     -18.51700000
       227    3   0.000000      -29.47100000      22.26000000     -17.57900000
       228    2   0.000000      -28.06100000      22.28200000     -20.98700000
       229    2   0.000000      -28.55200000      22.09400000     -22.42300000
       230    3   0.000000      -29.56900000      21.39300000     -22.63200000
       231    3   0.000000      -27.91800000      22.64300000     -23.35200000
       232    1   0.000000      -27.38100000      22.52400000     -18.34000000
       233    2   0.000000      -26.83100000      22.72600000     -17.00100000
       234    2   0.000000      -26.46100000      24.18200000     -16.73400000
       235    3   0.000000      -25.55000000      24.46900000     -15.95700000
       236    2   0.000000      -25.62300000      21.82000000     -16.77400000
       237    2   0.000000      -25.98300000      69.19800000     -16.84500000
       238    3   0.000000      -26.95900000      68.79900000     -16.18000000
       239    3   0.000000      -25.29900000      68.44300000     -17.56700000
       240    1   0.000000      -27.18900000      25.09800000     -17.36400000
       241    2   0.000000      -26.94600000      26.52400000     -17.19100000
       242    2   0.000000      -28.19900000      27.20700000     -16.64700000
       243    3   0.000000      -29.23400000      27.23600000     -17.30900000
       244    2   0.000000      -26.53400000      27.17500000     -18.53400000
       245    3   0.000000      -25.33900000      26.54800000     -19.02300000
       246    2   0.000000      -26.28700000      28.66600000     -18.37100000
       247    1   0.000000      -28.11800000      27.73400000     -15.42800000
       248    2   0.000000      -29.24300000      28.44800000     -14.83800000
       249    2   0.000000      -29.40500000      29.77100000     -15.56000000
       250    3   0.000000      -28.41600000      30.40200000     -15.93500000
       251    2   0.000000      -29.01200000      28.71400000     -13.34700000
       252    2   0.000000      -30.14600000      29.49700000     -12.68200000
       253    2   0.000000      -29.80500000      29.95600000     -11.27600000
       254    3   0.000000      -28.66600000      29.83100000     -10.83200000
       255    1   0.000000      -30.79500000      30.49700000     -10.57100000
       256    1   0.000000      -30.64400000      30.20200000     -15.75900000
       257    2   0.000000      -30.86000000      31.47400000     -16.44200000
       258    2   0.000000      -31.81500000      32.40600000     -15.71300000
       259    3   0.000000      -31.83600000      33.60200000     -15.99100000
       260    2   0.000000      -31.28600000      31.26500000     -17.90700000
       261    2   0.000000      -32.65100000      30.65400000     -18.07600000
       262    2   0.000000      -32.83300000      29.28900000     -17.94700000
       263    2   0.000000      -33.74700000      31.44400000     -18.39000000
       264    2   0.000000      -34.08300000      28.72300000     -18.11100000
       265    2   0.000000      -35.00000000      30.88300000     -18.56100000
       266    2   0.000000      -35.16900000      29.52200000     -18.42100000
       267    1   0.000000      -32.60200000      31.86600000     -14.78600000
       268    2   0.000000      -33.47800000      32.70000000     -13.96300000
       269    2   0.000000      -33.58700000      32.19100000     -12.53500000
       270    3   0.000000      -33.29600000      31.03000000     -12.24300000
       271    2   0.000000      -34.91000000      32.83200000     -14.54100000
       272    2   0.000000      -34.90700000      33.67300000     -15.80800000
       273    2   0.000000      -35.52900000      31.45800000     -14.79100000
       274    1   0.000000      -34.01200000      33.07900000     -11.64700000
       275    2   0.000000      -34.25200000      32.72000000     -10.26000000
       276    2   0.000000      -35.31900000      33.61200000      -9.66400000
       277    3   0.000000      -35.47200000      34.77200000     -10.05800000
       278    2   0.000000      -32.96200000      32.81400000      -9.43400000
       279    2   0.000000      -32.29000000      34.18500000      -9.45100000
       280    2   0.000000      -32.68600000      35.05300000      -8.25800000
       281    1   0.000000      -32.03100000      34.62200000      -7.02400000
       282    2   0.000000      -31.80900000      35.41200000      -5.97500000
       283    1   0.000000      -32.18200000      36.68900000      -6.00300000
       284    1   0.000000      -31.20500000      34.92700000      -4.89700000
       285    1   0.000000      -36.07800000      33.04100000      -8.73900000
       286    2   0.000000      -36.91600000      33.81100000      -7.83500000
       287    2   0.000000      -36.71000000      33.25000000      -6.43700000
       288    3   0.000000      -36.82200000      32.04200000      -6.21900000
       289    2   0.000000      -38.39600000      33.71600000      -8.21100000
       290    2   0.000000      -39.30800000      34.47000000      -7.27100000
       291    2   0.000000      -39.75400000      35.74300000      -7.58900000
       292    2   0.000000      -39.70700000      33.90900000      -6.06600000
       293    2   0.000000      -40.58900000      36.43900000      -6.73500000
       294    2   0.000000      -40.54300000      34.60300000      -5.19700000
       295    2   0.000000      -40.98200000      35.86900000      -5.53100000
       296    1   0.000000      -36.39600000      34.12600000      -5.49400000
       297    2   0.000000      -36.25500000      33.72800000      -4.10200000
       298    2   0.000000      -37.15100000      34.62500000      -3.26700000
       299    3   0.000000      -37.02200000      35.84700000      -3.31300000
       300    2   0.000000      -34.80100000      33.85500000      -3.65500000
       301    2   0.000000      -34.56000000      33.26300000      -2.27500000
       302    3   0.000000      -35.53900000      33.06200000      -1.52100000
       303    3   0.000000      -33.38700000      32.99600000      -1.94600000
       304    1   0.000000      -38.06700000      34.01400000      -2.51800000
       305    2   0.000000      -39.03300000      34.76800000      -1.72400000
       306    2   0.000000      -38.35900000      35.66000000      -0.68500000
       307    3   0.000000      -38.93100000      36.65900000      -0.25200000
       308    2   0.000000      -40.02500000      33.83000000      -1.03500000
       309    3   0.000000      -39.36800000      32.95900000      -0.13500000
       310    1   0.000000      -37.14400000      35.30400000      -0.28600000
       311    2   0.000000      -36.45100000      36.07700000       0.73800000
       312    2   0.000000      -35.52700000      37.14900000       0.14500000
       313    3   0.000000      -34.88500000      37.90500000       0.88000000
       314    2   0.000000      -35.71600000      35.15800000       1.71800000
       315    2   0.000000      -36.67300000      34.40300000       2.63700000
       316    3   0.000000      -37.90700000      34.40700000       2.38600000
       317    3   0.000000      -36.19100000      33.79900000       3.61600000
       318    1   0.000000      -35.48700000      37.23500000      -1.18400000
       319    2   0.000000      -34.71300000      38.27800000      -1.85200000
       320    2   0.000000      -35.48800000      39.59500000      -1.92400000
       321    3   0.000000      -36.67000000      39.65000000      -1.59000000
       322    2   0.000000      -34.28700000      37.82000000      -3.24900000
       323    1   0.000000      -34.82000000      40.64700000      -2.38400000
       324    2   0.000000      -35.38000000      41.99900000      -2.33900000
       325    2   0.000000      -36.34200000      42.34600000      -3.47500000
       326    3   0.000000      -37.36900000      42.99000000      -3.24500000
       327    2   0.000000      -34.26400000      43.02800000      -2.27000000
       328    1   0.000000      -36.01500000      41.93300000      -4.69600000
       329    2   0.000000      -36.77700000      42.37400000      -5.86600000
       330    2   0.000000      -38.22600000      41.89100000      -5.87500000
       331    3   0.000000      -39.11400000      42.58000000      -6.38300000
       332    2   0.000000      -36.09100000      41.91700000      -7.15700000
       333    3   0.000000      -36.27700000      40.52500000      -7.35700000
       334    1   0.000000      -38.45600000      40.70300000      -5.32300000
       335    2   0.000000      -39.74500000      40.03200000      -5.46000000
       336    2   0.000000      -40.11200000      39.90900000      -6.93700000
       337    3   0.000000      -41.28000000      39.98400000      -7.30900000
       338    2   0.000000      -40.83900000      40.76900000      -4.68400000
       339    2   0.000000      -40.62700000      40.77300000      -3.16900000
       340    2   0.000000      -40.58200000      39.37300000      -2.58700000
       341    3   0.000000      -41.56200000      38.62700000      -2.65200000
       342    1   0.000000      -39.44200000      39.01000000      -2.00900000
       343    1   0.000000      -39.09900000      39.72300000      -7.77700000
       344    2   0.000000      -39.31400000      39.52900000      -9.20800000
       345    2   0.000000      -38.48000000      38.36400000      -9.70600000
       346    3   0.000000      -37.53600000      37.93600000      -9.03600000
       347    2   0.000000      -38.93700000      40.78900000      -9.98700000
       348    2   0.000000      -39.82600000      41.98900000      -9.70800000
       349    2   0.000000      -39.35600000      43.21600000     -10.47800000
       350    1   0.000000      -39.33600000      42.98200000     -11.91900000
       351    2   0.000000      -40.41000000      43.04200000     -12.70200000
       352    1   0.000000      -41.59500000      43.32400000     -12.18300000
       353    1   0.000000      -40.30100000      42.81300000     -14.00200000
       354    1   0.000000      -38.82900000      37.83700000     -10.87500000
       355    2   0.000000      -37.95900000      36.86500000     -11.52000000
       356    2   0.000000      -36.73500000      37.62100000     -11.99900000
       357    3   0.000000      -36.85100000      38.73100000     -12.51900000
       358    2   0.000000      -38.65000000      36.16400000     -12.68800000
       359    2   0.000000      -37.82100000      35.02700000     -13.27300000
       360    4   0.000000      -37.86000000      33.51400000     -12.27900000
       361    2   0.000000      -39.30300000      32.69100000     -12.94200000
       362    1   0.000000      -35.56200000      37.02700000     -11.80800000
       363    2   0.000000      -34.31000000      37.72200000     -12.06600000
       364    2   0.000000      -33.41700000      36.92800000     -12.99800000
       365    3   0.000000      -33.35700000      35.70300000     -12.90500000
       366    2   0.000000      -33.56400000      37.96200000     -10.75200000
       367    2   0.000000      -34.36200000      38.68500000      -9.69200000
       368    2   0.000000      -33.59600000      38.79700000      -8.38600000
       369    3   0.000000      -32.35300000      38.66800000      -8.41800000